<?xml version="1.0"?>
<VTKFile type="UnstructuredGrid"  version="0.1"  >
<UnstructuredGrid>
<Piece  NumberOfPoints="361" NumberOfCells="648">
<Points>
<DataArray  type="Float64"  NumberOfComponents="3"  format="ascii">0 0 0  0.05555555555555555 0 0  0.1111111111111111 0 0  0.1666666666666667 0 0  0.2222222222222222 0 0  0.2777777777777778 0 0  0.3333333333333333 0 0  0.3888888888888889 0 0  0.4444444444444444 0 0  0.5 0 0  0.5555555555555556 0 0  0.6111111111111112 0 0  0.6666666666666666 0 0  0.7222222222222222 0 0  0.7777777777777778 0 0  0.8333333333333334 0 0  0.8888888888888888 0 0  0.9444444444444444 0 0  1 0 0  0 0.05555555555555555 0  0.05555555555555555 0.05555555555555555 0  0.1111111111111111 0.05555555555555555 0  0.1666666666666667 0.05555555555555555 0  0.2222222222222222 0.05555555555555555 0  0.2777777777777778 0.05555555555555555 0  0.3333333333333333 0.05555555555555555 0  0.3888888888888889 0.05555555555555555 0  0.4444444444444444 0.05555555555555555 0  0.5 0.05555555555555555 0  0.5555555555555556 0.05555555555555555 0  0.6111111111111112 0.05555555555555555 0  0.6666666666666666 0.05555555555555555 0  0.7222222222222222 0.05555555555555555 0  0.7777777777777778 0.05555555555555555 0  0.8333333333333334 0.05555555555555555 0  0.8888888888888888 0.05555555555555555 0  0.9444444444444444 0.05555555555555555 0  1 0.05555555555555555 0  0 0.1111111111111111 0  0.05555555555555555 0.1111111111111111 0  0.1111111111111111 0.1111111111111111 0  0.1666666666666667 0.1111111111111111 0  0.2222222222222222 0.1111111111111111 0  0.2777777777777778 0.1111111111111111 0  0.3333333333333333 0.1111111111111111 0  0.3888888888888889 0.1111111111111111 0  0.4444444444444444 0.1111111111111111 0  0.5 0.1111111111111111 0  0.5555555555555556 0.1111111111111111 0  0.6111111111111112 0.1111111111111111 0  0.6666666666666666 0.1111111111111111 0  0.7222222222222222 0.1111111111111111 0  0.7777777777777778 0.1111111111111111 0  0.8333333333333334 0.1111111111111111 0  0.8888888888888888 0.1111111111111111 0  0.9444444444444444 0.1111111111111111 0  1 0.1111111111111111 0  0 0.1666666666666667 0  0.05555555555555555 0.1666666666666667 0  0.1111111111111111 0.1666666666666667 0  0.1666666666666667 0.1666666666666667 0  0.2222222222222222 0.1666666666666667 0  0.2777777777777778 0.1666666666666667 0  0.3333333333333333 0.1666666666666667 0  0.3888888888888889 0.1666666666666667 0  0.4444444444444444 0.1666666666666667 0  0.5 0.1666666666666667 0  0.5555555555555556 0.1666666666666667 0  0.6111111111111112 0.1666666666666667 0  0.6666666666666666 0.1666666666666667 0  0.7222222222222222 0.1666666666666667 0  0.7777777777777778 0.1666666666666667 0  0.8333333333333334 0.1666666666666667 0  0.8888888888888888 0.1666666666666667 0  0.9444444444444444 0.1666666666666667 0  1 0.1666666666666667 0  0 0.2222222222222222 0  0.05555555555555555 0.2222222222222222 0  0.1111111111111111 0.2222222222222222 0  0.1666666666666667 0.2222222222222222 0  0.2222222222222222 0.2222222222222222 0  0.2777777777777778 0.2222222222222222 0  0.3333333333333333 0.2222222222222222 0  0.3888888888888889 0.2222222222222222 0  0.4444444444444444 0.2222222222222222 0  0.5 0.2222222222222222 0  0.5555555555555556 0.2222222222222222 0  0.6111111111111112 0.2222222222222222 0  0.6666666666666666 0.2222222222222222 0  0.7222222222222222 0.2222222222222222 0  0.7777777777777778 0.2222222222222222 0  0.8333333333333334 0.2222222222222222 0  0.8888888888888888 0.2222222222222222 0  0.9444444444444444 0.2222222222222222 0  1 0.2222222222222222 0  0 0.2777777777777778 0  0.05555555555555555 0.2777777777777778 0  0.1111111111111111 0.2777777777777778 0  0.1666666666666667 0.2777777777777778 0  0.2222222222222222 0.2777777777777778 0  0.2777777777777778 0.2777777777777778 0  0.3333333333333333 0.2777777777777778 0  0.3888888888888889 0.2777777777777778 0  0.4444444444444444 0.2777777777777778 0  0.5 0.2777777777777778 0  0.5555555555555556 0.2777777777777778 0  0.6111111111111112 0.2777777777777778 0  0.6666666666666666 0.2777777777777778 0  0.7222222222222222 0.2777777777777778 0  0.7777777777777778 0.2777777777777778 0  0.8333333333333334 0.2777777777777778 0  0.8888888888888888 0.2777777777777778 0  0.9444444444444444 0.2777777777777778 0  1 0.2777777777777778 0  0 0.3333333333333333 0  0.05555555555555555 0.3333333333333333 0  0.1111111111111111 0.3333333333333333 0  0.1666666666666667 0.3333333333333333 0  0.2222222222222222 0.3333333333333333 0  0.2777777777777778 0.3333333333333333 0  0.3333333333333333 0.3333333333333333 0  0.3888888888888889 0.3333333333333333 0  0.4444444444444444 0.3333333333333333 0  0.5 0.3333333333333333 0  0.5555555555555556 0.3333333333333333 0  0.6111111111111112 0.3333333333333333 0  0.6666666666666666 0.3333333333333333 0  0.7222222222222222 0.3333333333333333 0  0.7777777777777778 0.3333333333333333 0  0.8333333333333334 0.3333333333333333 0  0.8888888888888888 0.3333333333333333 0  0.9444444444444444 0.3333333333333333 0  1 0.3333333333333333 0  0 0.3888888888888889 0  0.05555555555555555 0.3888888888888889 0  0.1111111111111111 0.3888888888888889 0  0.1666666666666667 0.3888888888888889 0  0.2222222222222222 0.3888888888888889 0  0.2777777777777778 0.3888888888888889 0  0.3333333333333333 0.3888888888888889 0  0.3888888888888889 0.3888888888888889 0  0.4444444444444444 0.3888888888888889 0  0.5 0.3888888888888889 0  0.5555555555555556 0.3888888888888889 0  0.6111111111111112 0.3888888888888889 0  0.6666666666666666 0.3888888888888889 0  0.7222222222222222 0.3888888888888889 0  0.7777777777777778 0.3888888888888889 0  0.8333333333333334 0.3888888888888889 0  0.8888888888888888 0.3888888888888889 0  0.9444444444444444 0.3888888888888889 0  1 0.3888888888888889 0  0 0.4444444444444444 0  0.05555555555555555 0.4444444444444444 0  0.1111111111111111 0.4444444444444444 0  0.1666666666666667 0.4444444444444444 0  0.2222222222222222 0.4444444444444444 0  0.2777777777777778 0.4444444444444444 0  0.3333333333333333 0.4444444444444444 0  0.3888888888888889 0.4444444444444444 0  0.4444444444444444 0.4444444444444444 0  0.5 0.4444444444444444 0  0.5555555555555556 0.4444444444444444 0  0.6111111111111112 0.4444444444444444 0  0.6666666666666666 0.4444444444444444 0  0.7222222222222222 0.4444444444444444 0  0.7777777777777778 0.4444444444444444 0  0.8333333333333334 0.4444444444444444 0  0.8888888888888888 0.4444444444444444 0  0.9444444444444444 0.4444444444444444 0  1 0.4444444444444444 0  0 0.5 0  0.05555555555555555 0.5 0  0.1111111111111111 0.5 0  0.1666666666666667 0.5 0  0.2222222222222222 0.5 0  0.2777777777777778 0.5 0  0.3333333333333333 0.5 0  0.3888888888888889 0.5 0  0.4444444444444444 0.5 0  0.5 0.5 0  0.5555555555555556 0.5 0  0.6111111111111112 0.5 0  0.6666666666666666 0.5 0  0.7222222222222222 0.5 0  0.7777777777777778 0.5 0  0.8333333333333334 0.5 0  0.8888888888888888 0.5 0  0.9444444444444444 0.5 0  1 0.5 0  0 0.5555555555555556 0  0.05555555555555555 0.5555555555555556 0  0.1111111111111111 0.5555555555555556 0  0.1666666666666667 0.5555555555555556 0  0.2222222222222222 0.5555555555555556 0  0.2777777777777778 0.5555555555555556 0  0.3333333333333333 0.5555555555555556 0  0.3888888888888889 0.5555555555555556 0  0.4444444444444444 0.5555555555555556 0  0.5 0.5555555555555556 0  0.5555555555555556 0.5555555555555556 0  0.6111111111111112 0.5555555555555556 0  0.6666666666666666 0.5555555555555556 0  0.7222222222222222 0.5555555555555556 0  0.7777777777777778 0.5555555555555556 0  0.8333333333333334 0.5555555555555556 0  0.8888888888888888 0.5555555555555556 0  0.9444444444444444 0.5555555555555556 0  1 0.5555555555555556 0  0 0.6111111111111112 0  0.05555555555555555 0.6111111111111112 0  0.1111111111111111 0.6111111111111112 0  0.1666666666666667 0.6111111111111112 0  0.2222222222222222 0.6111111111111112 0  0.2777777777777778 0.6111111111111112 0  0.3333333333333333 0.6111111111111112 0  0.3888888888888889 0.6111111111111112 0  0.4444444444444444 0.6111111111111112 0  0.5 0.6111111111111112 0  0.5555555555555556 0.6111111111111112 0  0.6111111111111112 0.6111111111111112 0  0.6666666666666666 0.6111111111111112 0  0.7222222222222222 0.6111111111111112 0  0.7777777777777778 0.6111111111111112 0  0.8333333333333334 0.6111111111111112 0  0.8888888888888888 0.6111111111111112 0  0.9444444444444444 0.6111111111111112 0  1 0.6111111111111112 0  0 0.6666666666666666 0  0.05555555555555555 0.6666666666666666 0  0.1111111111111111 0.6666666666666666 0  0.1666666666666667 0.6666666666666666 0  0.2222222222222222 0.6666666666666666 0  0.2777777777777778 0.6666666666666666 0  0.3333333333333333 0.6666666666666666 0  0.3888888888888889 0.6666666666666666 0  0.4444444444444444 0.6666666666666666 0  0.5 0.6666666666666666 0  0.5555555555555556 0.6666666666666666 0  0.6111111111111112 0.6666666666666666 0  0.6666666666666666 0.6666666666666666 0  0.7222222222222222 0.6666666666666666 0  0.7777777777777778 0.6666666666666666 0  0.8333333333333334 0.6666666666666666 0  0.8888888888888888 0.6666666666666666 0  0.9444444444444444 0.6666666666666666 0  1 0.6666666666666666 0  0 0.7222222222222222 0  0.05555555555555555 0.7222222222222222 0  0.1111111111111111 0.7222222222222222 0  0.1666666666666667 0.7222222222222222 0  0.2222222222222222 0.7222222222222222 0  0.2777777777777778 0.7222222222222222 0  0.3333333333333333 0.7222222222222222 0  0.3888888888888889 0.7222222222222222 0  0.4444444444444444 0.7222222222222222 0  0.5 0.7222222222222222 0  0.5555555555555556 0.7222222222222222 0  0.6111111111111112 0.7222222222222222 0  0.6666666666666666 0.7222222222222222 0  0.7222222222222222 0.7222222222222222 0  0.7777777777777778 0.7222222222222222 0  0.8333333333333334 0.7222222222222222 0  0.8888888888888888 0.7222222222222222 0  0.9444444444444444 0.7222222222222222 0  1 0.7222222222222222 0  0 0.7777777777777778 0  0.05555555555555555 0.7777777777777778 0  0.1111111111111111 0.7777777777777778 0  0.1666666666666667 0.777777777
[...]
<PointData  Scalars="f_1929"> 
<DataArray  type="Float64"  Name="f_1929"  format="ascii">0.0000000000000000e+00  -4.3335540926907237e-12  1.8363687425913550e-11  -7.5583585009522510e-11  3.0999755525582952e-10  -1.2674694103681570e-09  5.1653649148089723e-09  -2.0973524449408544e-08  8.4795767214756405e-08  -3.4117231634025680e-07  1.3664387509685952e-06  -5.4588391926642839e-06  2.1843546542450759e-05  -8.7984377664463386e-05  3.5713901597798431e-04  -1.4464930242851102e-03  5.6830493641209720e-03  -2.0494840473117198e-02  6.0492740709978669e-02  0.0000000000000000e+00  -1.2384826590566807e-12  5.9832327214860561e-12  -2.5055991860641404e-11  1.0380373154944906e-10  -4.2845929973522582e-10  1.7631403317050984e-09  -7.2359007923597968e-09  2.9616865796491093e-08  -1.2082197330286812e-07  4.9044786457898702e-07  -1.9763165336878841e-06  7.8927494809186332e-06  -3.1299787770614061e-05  1.2438216429358211e-04  -5.0418770298100925e-04  2.1250045712380020e-03  -9.3299117263121005e-03  4.1334717178377132e-02  0.0000000000000000e+00  -1.8143951951875937e-12  7.8942964660573463e-12  -3.3016347398770995e-11  1.3707012231339989e-10  -5.6690851324519140e-10  2.3363047632729816e-09  -9.5951081622237572e-09  3.9278620048870494e-08  -1.6031134171720699e-07  6.5254825527420661e-07  -2.6492631057283836e-06  1.0721039074098919e-05  -4.3177883545668375e-05  1.7264037023748436e-04  -6.8368981494846192e-04  2.6806650471341070e-03  -1.0446701834236249e-02  4.0826856644789696e-02  0.0000000000000000e+00  -1.4432946377406553e-12  6.5185336206081005e-12  -2.7451027498946787e-11  1.1487061531229156e-10  -4.7909293199334105e-10  1.9915352715107756e-09  -8.2491641234350071e-09  3.4047524249575692e-08  -1.4003223686829027e-07  5.7390098070949637e-07  -2.3442190962210237e-06  9.5473488814982017e-06  -3.8788752089831773e-05  1.5726299375250425e-04  -6.3620157167987627e-04  2.5658935342076790e-03  -1.0302228311741404e-02  4.1127946365083615e-02  0.0000000000000000e+00  -1.3267356081354933e-12  5.9719773767316685e-12  -2.5365341072216003e-11  1.0682220891575587e-10  -4.4794733030418154e-10  1.8724701633716636e-09  -7.8030283905257690e-09  3.2405766960424233e-08  -1.3411277126472021e-07  5.5315624737027024e-07  -2.2735696928013697e-06  9.3113047158632811e-06  -3.7996009952146590e-05  1.5449352528405257e-04  -6.2604112447893609e-04  2.5288816080537842e-03  -1.0185441591770795e-02  4.0902956200387981e-02  0.0000000000000000e+00  -1.1822863435188972e-12  5.3291871959735621e-12  -2.2745385530523256e-11  9.6633791983845303e-11  -4.0861617748690223e-10  1.7194705746809331e-09  -7.2096511620633781e-09  3.0140424582003068e-08  -1.2558580861610986e-07  5.2142141536511458e-07  -2.1576751866660996e-06  8.8988417740651050e-06  -3.6577870746409538e-05  1.4984203637080057e-04  -6.1173207503470255e-04  2.4887900404883217e-03  -1.0090604420926588e-02  4.0772712820305125e-02  0.0000000000000000e+00  -1.0781269115575699e-12  4.8583932147919067e-12  -2.0649178190086520e-11  8.7778967662152456e-11  -3.7378446238199457e-10  1.5871206710393037e-09  -6.7034907833668031e-09  2.8188993630301111e-08  -1.1818462461031546e-07  4.9397171904149007e-07  -2.0571482558991102e-06  8.5376632254678429e-06  -3.5313752298893976e-05  1.4556946220160339e-04  -5.9803729133677322e-04  2.4486142645319367e-03  -9.9918618024548520e-03  4.0635415026580163e-02  0.0000000000000000e+00  -9.3689805549568910e-13  4.4164059138315696e-12  -1.9045616541591233e-11  8.0713704870036521e-11  -3.4217225361924632e-10  1.4575367757515938e-09  -6.2117426692212235e-09  2.6349623731803773e-08  -1.1116180049475901e-07  4.6735585168797309e-07  -1.9595117268559031e-06  8.1862272231723871e-06  -3.4080356231191625e-05  1.4140183757464588e-04  -5.8468151634255723e-04  2.4093720884052010e-03  -9.8949141535252545e-03  4.0499272936665442e-02  0.0000000000000000e+00  -6.8793032148262575e-13  3.6419790799988367e-12  -1.6992766947098810e-11  7.4881916898980715e-11  -3.1968584230680007e-10  1.3522984493494893e-09  -5.7461242974089367e-09  2.4536451013125907e-08  -1.0455384937927228e-07  4.4274926966036601e-07  -1.8664698763240820e-06  7.8489946121346334e-06  -3.2892654952363824e-05  1.3735290815309294e-04  -5.7161842644762957e-04  2.3707555811600120e-03  -9.7990597108464361e-03  4.0364718805590713e-02  0.0000000000000000e+00  -3.6914320948121104e-13  2.3636177716683858e-12  -1.2874668420520456e-11  6.3793124885307965e-11  -2.9321296268849123e-10  1.2777129053707473e-09  -5.4206827715500733e-09  2.2937239279585011e-08  -9.7834222786966478e-08  4.1850994641872769e-07  -1.7802810884054636e-06  7.5263206452186095e-06  -3.1740510005705674e-05  1.3342652142583645e-04  -5.5885336112812230e-04  2.3327934148200612e-03  -9.7043031410309691e-03  4.0231453544410198e-02  0.0000000000000000e+00  -1.1621469047073808e-13  1.0199416485969901e-12  -7.0747600245446169e-12  4.2726050762468210e-11  -2.3036879588054905e-10  1.1277756277616416e-09  -5.1097993484104919e-09  2.1998462669898255e-08  -9.2891161716074953e-08  3.9435760630351503e-07  -1.6898030482400478e-06  7.2250771251464380e-06  -3.0643259023849181e-05  1.2958455502019216e-04  -5.4639216860574453e-04  2.2954702127247466e-03  -9.6106327530840613e-03  4.0099504280141036e-02  0.0000000000000000e+00  -4.5807418354990429e-15  1.9324382780981602e-13  -2.2288839723583498e-12  1.8699120406906974e-11  -1.2999900818081234e-10  7.8324902536703002e-10  -4.1834863071809332e-09  2.0168198741066117e-08  -8.9796151099758840e-08  3.8180108380157412e-07  -1.6105225535498962e-06  6.8850234131510296e-06  -2.9585567569022727e-05  1.2596149972578940e-04  -5.3410897462600332e-04  2.2587924675621244e-03  -9.5180398089549038e-03  3.9968844365041827e-02  0.0000000000000000e+00  1.0249152181807326e-14  -4.5164595016169869e-14  -6.0972370722281657e-14  3.3951307705991115e-12  -4.0738555222927546e-11  3.4806446617595421e-10  -2.4351372593219424e-09  1.4618933115777347e-08  -7.7077642248680570e-08  3.6412615061573390e-07  -1.5873400646909668e-06  6.6785861644549110e-06  -2.8342875135126127e-05  1.2221469293487833e-04  -5.2266506406365310e-04  2.2224610346149422e-03  -9.4264646653181138e-03  3.9839479101813763e-02  0.0000000000000000e+00  1.8306483906810672e-15  -2.6136619892881833e-14  2.0040437735440738e-13  -9.1846082694741861e-13  -3.7374716543475757e-13  5.9460784108304096e-11  -7.5595451222746834e-10  6.6096271913393334e-09  -4.6580266207303872e-08  2.7800357604785977e-07  -1.4389525721778365e-06  6.6130036739647393e-06  -2.8134591822089753e-05  1.1811558800312987e-04  -5.0939655805249122e-04  2.1888582867927364e-03  -9.3356576721739040e-03  3.9711133246749922e-02  0.0000000000000000e+00  -8.4078930631638731e-16  2.1233238930555695e-15  2.6811102924881495e-14  -4.4320415626181054e-13  3.7395111841264133e-12  -1.9102593402041748e-11  1.0965079967303882e-11  1.0337747038719457e-09  -1.4241143012995553e-08  1.2830887651113212e-07  -9.1207934342820189e-07  5.3910189316482867e-06  -2.7134717015751560e-05  1.1994336206770851e-04  -4.9928498271842986e-04  2.1438266880859373e-03  -9.2508936274107879e-03  3.9585170588406222e-02  0.0000000000000000e+00  -1.4841983771562109e-16  2.3518447121355284e-15  -1.7636609436688923e-14  6.5669340843208617e-14  2.8105476869363502e-13  -7.2826523348663341e-12  7.0247059440719728e-11  -4.0663038874216300e-10  6.5454602721915969e-10  1.7525869046108194e-08  -2.7217073586531917e-07  2.5554849133041417e-06  -1.8362037870771140e-05  1.0666703676788401e-04  -5.1200892155789618e-04  2.1413215421253588e-03  -9.1201990585597133e-03  3.9461069701111538e-02  0.0000000000000000e+00  8.5959914500877634e-17  -3.4468987312278755e-16  -1.4306018405610537e-15  3.7012053952825551e-14  -3.4261452163453952e-13  1.7530458420418178e-12  3.2023901896727299e-13  -1.1162897791630292e-10  1.3131872849114847e-09  -8.8376672502649924e-09  2.4282691695969012e-08  2.7675357787678079e-07  -5.2667934816850316e-06  5.2624399100346178e-05  -3.8364973206961192e-04  2.1458545570329250e-03  -9.2813904846108207e-03  3.9249514230581491e-02  0.0000000000000000e+00  1.5971188784947183e-18  -1.6651141565892882e-16  1.7460403273180585e-15  -9.9431341659163704e-15  9.0004239623340490e-15  4.9883446742729969e-13  -6.3269445411861930e-12  4.2958981745507603e-11  -1.0992327845371778e-10  -1.4055987950707437e-09  2.3761399505195551e-08  -1.9490933392445116e-07  8.0147344840882395e-07  3.4191374862867175e-06  -1.0259313697623500e-04  1.1460179960866299e-03  -8.5469356653988769e-03  4.0224861982794617e-02  0.0000000000000000e+00  -7.8606244957767307e-18  6.1577380018354856e-17  -1.6996246262063392e-16  -1.7505724626766651e-15  3.0236364477349797e-14  -2.4109573448442030e-13  9.3533325107491886e-13  3.9847785697404418e-12  -1.0432659385803799e-10  9.7071346016313321e-10  -4.8103574450062233e-09  -5.4827213978570115e-09  3.8221110235188433e-07  -4.2722517147318633e-06  2.6012646081091436e-05  -1.2965787633712751e-05  -1.9634267698370564e-03  3.0506113196036501e-02  </DataArray> 
</PointData> 
</Piece>
</UnstructuredGrid>
</VTKFile>