<?xml version="1.0"?>
<VTKFile type="UnstructuredGrid"  version="0.1"  >
<UnstructuredGrid>
<Piece  NumberOfPoints="361" NumberOfCells="648">
<Points>
<DataArray  type="Float64"  NumberOfComponents="3"  format="ascii">0 0 0  0.05555555555555555 0 0  0.1111111111111111 0 0  0.1666666666666667 0 0  0.2222222222222222 0 0  0.2777777777777778 0 0  0.3333333333333333 0 0  0.3888888888888889 0 0  0.4444444444444444 0 0  0.5 0 0  0.5555555555555556 0 0  0.6111111111111112 0 0  0.6666666666666666 0 0  0.7222222222222222 0 0  0.7777777777777778 0 0  0.8333333333333334 0 0  0.8888888888888888 0 0  0.9444444444444444 0 0  1 0 0  0 0.05555555555555555 0  0.05555555555555555 0.05555555555555555 0  0.1111111111111111 0.05555555555555555 0  0.1666666666666667 0.05555555555555555 0  0.2222222222222222 0.05555555555555555 0  0.2777777777777778 0.05555555555555555 0  0.3333333333333333 0.05555555555555555 0  0.3888888888888889 0.05555555555555555 0  0.4444444444444444 0.05555555555555555 0  0.5 0.05555555555555555 0  0.5555555555555556 0.05555555555555555 0  0.6111111111111112 0.05555555555555555 0  0.6666666666666666 0.05555555555555555 0  0.7222222222222222 0.05555555555555555 0  0.7777777777777778 0.05555555555555555 0  0.8333333333333334 0.05555555555555555 0  0.8888888888888888 0.05555555555555555 0  0.9444444444444444 0.05555555555555555 0  1 0.05555555555555555 0  0 0.1111111111111111 0  0.05555555555555555 0.1111111111111111 0  0.1111111111111111 0.1111111111111111 0  0.1666666666666667 0.1111111111111111 0  0.2222222222222222 0.1111111111111111 0  0.2777777777777778 0.1111111111111111 0  0.3333333333333333 0.1111111111111111 0  0.3888888888888889 0.1111111111111111 0  0.4444444444444444 0.1111111111111111 0  0.5 0.1111111111111111 0  0.5555555555555556 0.1111111111111111 0  0.6111111111111112 0.1111111111111111 0  0.6666666666666666 0.1111111111111111 0  0.7222222222222222 0.1111111111111111 0  0.7777777777777778 0.1111111111111111 0  0.8333333333333334 0.1111111111111111 0  0.8888888888888888 0.1111111111111111 0  0.9444444444444444 0.1111111111111111 0  1 0.1111111111111111 0  0 0.1666666666666667 0  0.05555555555555555 0.1666666666666667 0  0.1111111111111111 0.1666666666666667 0  0.1666666666666667 0.1666666666666667 0  0.2222222222222222 0.1666666666666667 0  0.2777777777777778 0.1666666666666667 0  0.3333333333333333 0.1666666666666667 0  0.3888888888888889 0.1666666666666667 0  0.4444444444444444 0.1666666666666667 0  0.5 0.1666666666666667 0  0.5555555555555556 0.1666666666666667 0  0.6111111111111112 0.1666666666666667 0  0.6666666666666666 0.1666666666666667 0  0.7222222222222222 0.1666666666666667 0  0.7777777777777778 0.1666666666666667 0  0.8333333333333334 0.1666666666666667 0  0.8888888888888888 0.1666666666666667 0  0.9444444444444444 0.1666666666666667 0  1 0.1666666666666667 0  0 0.2222222222222222 0  0.05555555555555555 0.2222222222222222 0  0.1111111111111111 0.2222222222222222 0  0.1666666666666667 0.2222222222222222 0  0.2222222222222222 0.2222222222222222 0  0.2777777777777778 0.2222222222222222 0  0.3333333333333333 0.2222222222222222 0  0.3888888888888889 0.2222222222222222 0  0.4444444444444444 0.2222222222222222 0  0.5 0.2222222222222222 0  0.5555555555555556 0.2222222222222222 0  0.6111111111111112 0.2222222222222222 0  0.6666666666666666 0.2222222222222222 0  0.7222222222222222 0.2222222222222222 0  0.7777777777777778 0.2222222222222222 0  0.8333333333333334 0.2222222222222222 0  0.8888888888888888 0.2222222222222222 0  0.9444444444444444 0.2222222222222222 0  1 0.2222222222222222 0  0 0.2777777777777778 0  0.05555555555555555 0.2777777777777778 0  0.1111111111111111 0.2777777777777778 0  0.1666666666666667 0.2777777777777778 0  0.2222222222222222 0.2777777777777778 0  0.2777777777777778 0.2777777777777778 0  0.3333333333333333 0.2777777777777778 0  0.3888888888888889 0.2777777777777778 0  0.4444444444444444 0.2777777777777778 0  0.5 0.2777777777777778 0  0.5555555555555556 0.2777777777777778 0  0.6111111111111112 0.2777777777777778 0  0.6666666666666666 0.2777777777777778 0  0.7222222222222222 0.2777777777777778 0  0.7777777777777778 0.2777777777777778 0  0.8333333333333334 0.2777777777777778 0  0.8888888888888888 0.2777777777777778 0  0.9444444444444444 0.2777777777777778 0  1 0.2777777777777778 0  0 0.3333333333333333 0  0.05555555555555555 0.3333333333333333 0  0.1111111111111111 0.3333333333333333 0  0.1666666666666667 0.3333333333333333 0  0.2222222222222222 0.3333333333333333 0  0.2777777777777778 0.3333333333333333 0  0.3333333333333333 0.3333333333333333 0  0.3888888888888889 0.3333333333333333 0  0.4444444444444444 0.3333333333333333 0  0.5 0.3333333333333333 0  0.5555555555555556 0.3333333333333333 0  0.6111111111111112 0.3333333333333333 0  0.6666666666666666 0.3333333333333333 0  0.7222222222222222 0.3333333333333333 0  0.7777777777777778 0.3333333333333333 0  0.8333333333333334 0.3333333333333333 0  0.8888888888888888 0.3333333333333333 0  0.9444444444444444 0.3333333333333333 0  1 0.3333333333333333 0  0 0.3888888888888889 0  0.05555555555555555 0.3888888888888889 0  0.1111111111111111 0.3888888888888889 0  0.1666666666666667 0.3888888888888889 0  0.2222222222222222 0.3888888888888889 0  0.2777777777777778 0.3888888888888889 0  0.3333333333333333 0.3888888888888889 0  0.3888888888888889 0.3888888888888889 0  0.4444444444444444 0.3888888888888889 0  0.5 0.3888888888888889 0  0.5555555555555556 0.3888888888888889 0  0.6111111111111112 0.3888888888888889 0  0.6666666666666666 0.3888888888888889 0  0.7222222222222222 0.3888888888888889 0  0.7777777777777778 0.3888888888888889 0  0.8333333333333334 0.3888888888888889 0  0.8888888888888888 0.3888888888888889 0  0.9444444444444444 0.3888888888888889 0  1 0.3888888888888889 0  0 0.4444444444444444 0  0.05555555555555555 0.4444444444444444 0  0.1111111111111111 0.4444444444444444 0  0.1666666666666667 0.4444444444444444 0  0.2222222222222222 0.4444444444444444 0  0.2777777777777778 0.4444444444444444 0  0.3333333333333333 0.4444444444444444 0  0.3888888888888889 0.4444444444444444 0  0.4444444444444444 0.4444444444444444 0  0.5 0.4444444444444444 0  0.5555555555555556 0.4444444444444444 0  0.6111111111111112 0.4444444444444444 0  0.6666666666666666 0.4444444444444444 0  0.7222222222222222 0.4444444444444444 0  0.7777777777777778 0.4444444444444444 0  0.8333333333333334 0.4444444444444444 0  0.8888888888888888 0.4444444444444444 0  0.9444444444444444 0.4444444444444444 0  1 0.4444444444444444 0  0 0.5 0  0.05555555555555555 0.5 0  0.1111111111111111 0.5 0  0.1666666666666667 0.5 0  0.2222222222222222 0.5 0  0.2777777777777778 0.5 0  0.3333333333333333 0.5 0  0.3888888888888889 0.5 0  0.4444444444444444 0.5 0  0.5 0.5 0  0.5555555555555556 0.5 0  0.6111111111111112 0.5 0  0.6666666666666666 0.5 0  0.7222222222222222 0.5 0  0.7777777777777778 0.5 0  0.8333333333333334 0.5 0  0.8888888888888888 0.5 0  0.9444444444444444 0.5 0  1 0.5 0  0 0.5555555555555556 0  0.05555555555555555 0.5555555555555556 0  0.1111111111111111 0.5555555555555556 0  0.1666666666666667 0.5555555555555556 0  0.2222222222222222 0.5555555555555556 0  0.2777777777777778 0.5555555555555556 0  0.3333333333333333 0.5555555555555556 0  0.3888888888888889 0.5555555555555556 0  0.4444444444444444 0.5555555555555556 0  0.5 0.5555555555555556 0  0.5555555555555556 0.5555555555555556 0  0.6111111111111112 0.5555555555555556 0  0.6666666666666666 0.5555555555555556 0  0.7222222222222222 0.5555555555555556 0  0.7777777777777778 0.5555555555555556 0  0.8333333333333334 0.5555555555555556 0  0.8888888888888888 0.5555555555555556 0  0.9444444444444444 0.5555555555555556 0  1 0.5555555555555556 0  0 0.6111111111111112 0  0.05555555555555555 0.6111111111111112 0  0.1111111111111111 0.6111111111111112 0  0.1666666666666667 0.6111111111111112 0  0.2222222222222222 0.6111111111111112 0  0.2777777777777778 0.6111111111111112 0  0.3333333333333333 0.6111111111111112 0  0.3888888888888889 0.6111111111111112 0  0.4444444444444444 0.6111111111111112 0  0.5 0.6111111111111112 0  0.5555555555555556 0.6111111111111112 0  0.6111111111111112 0.6111111111111112 0  0.6666666666666666 0.6111111111111112 0  0.7222222222222222 0.6111111111111112 0  0.7777777777777778 0.6111111111111112 0  0.8333333333333334 0.6111111111111112 0  0.8888888888888888 0.6111111111111112 0  0.9444444444444444 0.6111111111111112 0  1 0.6111111111111112 0  0 0.6666666666666666 0  0.05555555555555555 0.6666666666666666 0  0.1111111111111111 0.6666666666666666 0  0.1666666666666667 0.6666666666666666 0  0.2222222222222222 0.6666666666666666 0  0.2777777777777778 0.6666666666666666 0  0.3333333333333333 0.6666666666666666 0  0.3888888888888889 0.6666666666666666 0  0.4444444444444444 0.6666666666666666 0  0.5 0.6666666666666666 0  0.5555555555555556 0.6666666666666666 0  0.6111111111111112 0.6666666666666666 0  0.6666666666666666 0.6666666666666666 0  0.7222222222222222 0.6666666666666666 0  0.7777777777777778 0.6666666666666666 0  0.8333333333333334 0.6666666666666666 0  0.8888888888888888 0.6666666666666666 0  0.9444444444444444 0.6666666666666666 0  1 0.6666666666666666 0  0 0.7222222222222222 0  0.05555555555555555 0.7222222222222222 0  0.1111111111111111 0.7222222222222222 0  0.1666666666666667 0.7222222222222222 0  0.2222222222222222 0.7222222222222222 0  0.2777777777777778 0.7222222222222222 0  0.3333333333333333 0.7222222222222222 0  0.3888888888888889 0.7222222222222222 0  0.4444444444444444 0.7222222222222222 0  0.5 0.7222222222222222 0  0.5555555555555556 0.7222222222222222 0  0.6111111111111112 0.7222222222222222 0  0.6666666666666666 0.7222222222222222 0  0.7222222222222222 0.7222222222222222 0  0.7777777777777778 0.7222222222222222 0  0.8333333333333334 0.7222222222222222 0  0.8888888888888888 0.7222222222222222 0  0.9444444444444444 0.7222222222222222 0  1 0.7222222222222222 0  0 0.7777777777777778 0  0.05555555555555555 0.7777777777777778 0  0.1111111111111111 0.7777777777777778 0  0.1666666666666667 0.777777777
[...]
<PointData  Scalars="f_712"> 
<DataArray  type="Float64"  Name="f_712"  format="ascii">5.0000000000000000e+02  5.0000000000000000e+02  5.0000000000000000e+02  5.0000000000000000e+02  5.0000000000000000e+02  5.0000000000000000e+02  5.0000000000000000e+02  5.0000000000000000e+02  5.0000000000000000e+02  5.0000000000000000e+02  5.0000000000000000e+02  5.0000000000000000e+02  5.0000000000000000e+02  5.0000000000000000e+02  5.0000000000000000e+02  5.0000000000000000e+02  5.0000000000000000e+02  5.0000000000000000e+02  5.0000000000000000e+02  5.0000000000000000e+02  5.0000000000000000e+02  5.0000000000000000e+02  5.0000000000000000e+02  5.0000000000000000e+02  5.0000000000000000e+02  5.0000000000000000e+02  5.0000000000000000e+02  5.0000000000000000e+02  5.0000000000000000e+02  5.0000000000000000e+02  5.0000000000000000e+02  5.0000000000000000e+02  5.0000000000000000e+02  5.0000000000000000e+02  5.0000000000000000e+02  5.0000000000000000e+02  5.0000000000000000e+02  5.0000000000000000e+02  5.0000000000000000e+02  5.0000000000000000e+02  5.0000000000000000e+02  5.0000000000000000e+02  5.0000000000000000e+02  5.0000000000000000e+02  5.0000000000000000e+02  5.0000000000000000e+02  5.0000000000000000e+02  5.0000000000000000e+02  5.0000000000000000e+02  5.0000000000000000e+02  5.0000000000000000e+02  5.0000000000000000e+02  5.0000000000000000e+02  5.0000000000000000e+02  5.0000000000000000e+02  5.0000000000000000e+02  5.0000000000000000e+02  5.0000000000000000e+02  5.0000000000000000e+02  5.0000000000000000e+02  5.0000000000000000e+02  5.0000000000000000e+02  5.0000000000000000e+02  5.0000000000000000e+02  5.0000000000000000e+02  5.0000000000000000e+02  5.0000000000000000e+02  5.0000000000000000e+02  5.0000000000000000e+02  5.0000000000000000e+02  5.0000000000000000e+02  5.0000000000000000e+02  5.0000000000000000e+02  5.0000000000000000e+02  5.0000000000000000e+02  5.0000000000000000e+02  5.0000000000000000e+02  5.0000000000000000e+02  5.0000000000000000e+02  5.0000000000000000e+02  5.0000000000000000e+02  5.0000000000000000e+02  5.0000000000000000e+02  5.0000000000000000e+02  5.0000000000000000e+02  5.0000000000000000e+02  5.0000000000000000e+02  5.0000000000000000e+02  5.0000000000000000e+02  5.0000000000000000e+02  5.0000000000000000e+02  5.0000000000000000e+02  5.0000000000000000e+02  5.0000000000000000e+02  5.0000000000000000e+02  5.0000000000000000e+02  5.0000000000000000e+02  5.0000000000000000e+02  5.0000000000000000e+02  5.0000000000000000e+02  5.0000000000000000e+02  5.0000000000000000e+02  5.0000000000000000e+02  5.0000000000000000e+02  5.0000000000000000e+02  5.0000000000000000e+02  5.0000000000000000e+02  5.0000000000000000e+02  5.0000000000000000e+02  5.0000000000000000e+02  5.0000000000000000e+02  5.0000000000000000e+02  5.0000000000000000e+02  5.0000000000000000e+02  5.0000000000000000e+02  5.0000000000000000e+02  5.0000000000000000e+02  5.0000000000000000e+02  5.0000000000000000e+02  5.0000000000000000e+02  5.0000000000000000e+02  5.0000000000000000e+02  5.0000000000000000e+02  5.0000000000000000e+02  5.0000000000000000e+02  5.0000000000000000e+02  5.0000000000000000e+02  5.0000000000000000e+02  5.0000000000000000e+02  5.0000000000000000e+02  5.0000000000000000e+02  5.0000000000000000e+02  5.0000000000000000e+02  5.0000000000000000e+02  5.0000000000000000e+02  5.0000000000000000e+02  5.0000000000000000e+02  5.0000000000000000e+02  5.0000000000000000e+02  5.0000000000000000e+02  5.0000000000000000e+02  5.0000000000000000e+02  5.0000000000000000e+02  5.0000000000000000e+02  5.0000000000000000e+02  5.0000000000000000e+02  5.0000000000000000e+02  5.0000000000000000e+02  5.0000000000000000e+02  5.0000000000000000e+02  5.0000000000000000e+02  5.0000000000000000e+02  5.0000000000000000e+02  5.0000000000000000e+02  5.0000000000000000e+02  5.0000000000000000e+02  5.0000000000000000e+02  5.0000000000000000e+02  5.0000000000000000e+02  5.0000000000000000e+02  5.0000000000000000e+02  5.0000000000000000e+02  5.0000000000000000e+02  5.0000000000000000e+02  5.0000000000000000e+02  5.0000000000000000e+02  5.0000000000000000e+02  5.0000000000000000e+02  5.0000000000000000e+02  5.0000000000000000e+02  5.0000000000000000e+02  5.0000000000000000e+02  5.0000000000000000e+02  5.0000000000000000e+02  5.0000000000000000e+02  5.0000000000000000e+02  5.0000000000000000e+02  5.0000000000000000e+02  5.0000000000000000e+02  5.0000000000000000e+02  5.0000000000000000e+02  5.0000000000000000e+02  5.0000000000000000e+02  5.0000000000000000e+02  5.0000000000000000e+02  5.0000000000000000e+02  5.0000000000000000e+02  5.0000000000000000e+02  5.0000000000000000e+02  5.0000000000000000e+02  5.0000000000000000e+02  5.0000000000000000e+02  5.0000000000000000e+02  5.0000000000000000e+02  5.0000000000000000e+02  5.0000000000000000e+02  5.0000000000000000e+02  5.0000000000000000e+02  5.0000000000000000e+02  5.0000000000000000e+02  5.0000000000000000e+02  5.0000000000000000e+02  5.0000000000000000e+02  5.0000000000000000e+02  5.0000000000000000e+02  5.0000000000000000e+02  5.0000000000000000e+02  5.0000000000000000e+02  5.0000000000000000e+02  5.0000000000000000e+02  5.0000000000000000e+02  5.0000000000000000e+02  5.0000000000000000e+02  5.0000000000000000e+02  5.0000000000000000e+02  5.0000000000000000e+02  5.0000000000000000e+02  5.0000000000000000e+02  5.0000000000000000e+02  5.0000000000000000e+02  5.0000000000000000e+02  5.0000000000000000e+02  5.0000000000000000e+02  5.0000000000000000e+02  5.0000000000000000e+02  5.0000000000000000e+02  5.0000000000000000e+02  5.0000000000000000e+02  5.0000000000000000e+02  5.0000000000000000e+02  5.0000000000000000e+02  5.0000000000000000e+02  5.0000000000000000e+02  5.0000000000000000e+02  5.0000000000000000e+02  5.0000000000000000e+02  5.0000000000000000e+02  5.0000000000000000e+02  5.0000000000000000e+02  5.0000000000000000e+02  5.0000000000000000e+02  5.0000000000000000e+02  5.0000000000000000e+02  5.0000000000000000e+02  5.0000000000000000e+02  5.0000000000000000e+02  5.0000000000000000e+02  5.0000000000000000e+02  5.0000000000000000e+02  5.0000000000000000e+02  5.0000000000000000e+02  5.0000000000000000e+02  5.0000000000000000e+02  5.0000000000000000e+02  5.0000000000000000e+02  5.0000000000000000e+02  5.0000000000000000e+02  5.0000000000000000e+02  5.0000000000000000e+02  5.0000000000000000e+02  5.0000000000000000e+02  5.0000000000000000e+02  5.0000000000000000e+02  5.0000000000000000e+02  5.0000000000000000e+02  5.0000000000000000e+02  5.0000000000000000e+02  5.0000000000000000e+02  5.0000000000000000e+02  5.0000000000000000e+02  5.0000000000000000e+02  5.0000000000000000e+02  5.0000000000000000e+02  5.0000000000000000e+02  5.0000000000000000e+02  5.0000000000000000e+02  5.0000000000000000e+02  5.0000000000000000e+02  5.0000000000000000e+02  5.0000000000000000e+02  5.0000000000000000e+02  5.0000000000000000e+02  5.0000000000000000e+02  5.0000000000000000e+02  5.0000000000000000e+02  5.0000000000000000e+02  5.0000000000000000e+02  5.0000000000000000e+02  5.0000000000000000e+02  5.0000000000000000e+02  5.0000000000000000e+02  5.0000000000000000e+02  5.0000000000000000e+02  5.0000000000000000e+02  5.0000000000000000e+02  5.0000000000000000e+02  5.0000000000000000e+02  5.0000000000000000e+02  5.0000000000000000e+02  5.0000000000000000e+02  5.0000000000000000e+02  5.0000000000000000e+02  5.0000000000000000e+02  5.0000000000000000e+02  5.0000000000000000e+02  5.0000000000000000e+02  5.0000000000000000e+02  5.0000000000000000e+02  5.0000000000000000e+02  5.0000000000000000e+02  5.0000000000000000e+02  5.0000000000000000e+02  5.0000000000000000e+02  5.0000000000000000e+02  5.0000000000000000e+02  5.0000000000000000e+02  5.0000000000000000e+02  5.0000000000000000e+02  5.0000000000000000e+02  5.0000000000000000e+02  5.0000000000000000e+02  5.0000000000000000e+02  5.0000000000000000e+02  5.0000000000000000e+02  5.0000000000000000e+02  5.0000000000000000e+02  5.0000000000000000e+02  5.0000000000000000e+02  5.0000000000000000e+02  5.0000000000000000e+02  5.0000000000000000e+02  5.0000000000000000e+02  5.0000000000000000e+02  5.0000000000000000e+02  5.0000000000000000e+02  5.0000000000000000e+02  5.0000000000000000e+02  5.0000000000000000e+02  5.0000000000000000e+02  5.0000000000000000e+02  5.0000000000000000e+02  5.0000000000000000e+02  5.0000000000000000e+02  5.0000000000000000e+02  5.0000000000000000e+02  5.0000000000000000e+02  5.0000000000000000e+02  5.0000000000000000e+02  5.0000000000000000e+02  5.0000000000000000e+02  5.0000000000000000e+02  5.0000000000000000e+02  5.0000000000000000e+02  5.0000000000000000e+02  5.0000000000000000e+02  5.0000000000000000e+02  5.0000000000000000e+02  5.0000000000000000e+02  5.0000000000000000e+02  5.0000000000000000e+02  5.0000000000000000e+02  </DataArray> 
</PointData> 
</Piece>
</UnstructuredGrid>
</VTKFile>