<?xml version="1.0"?>
<VTKFile type="UnstructuredGrid"  version="0.1"  >
<UnstructuredGrid>
<Piece  NumberOfPoints="361" NumberOfCells="648">
<Points>
<DataArray  type="Float64"  NumberOfComponents="3"  format="ascii">0 0 0  0.05555555555555555 0 0  0.1111111111111111 0 0  0.1666666666666667 0 0  0.2222222222222222 0 0  0.2777777777777778 0 0  0.3333333333333333 0 0  0.3888888888888889 0 0  0.4444444444444444 0 0  0.5 0 0  0.5555555555555556 0 0  0.6111111111111112 0 0  0.6666666666666666 0 0  0.7222222222222222 0 0  0.7777777777777778 0 0  0.8333333333333334 0 0  0.8888888888888888 0 0  0.9444444444444444 0 0  1 0 0  0 0.05555555555555555 0  0.05555555555555555 0.05555555555555555 0  0.1111111111111111 0.05555555555555555 0  0.1666666666666667 0.05555555555555555 0  0.2222222222222222 0.05555555555555555 0  0.2777777777777778 0.05555555555555555 0  0.3333333333333333 0.05555555555555555 0  0.3888888888888889 0.05555555555555555 0  0.4444444444444444 0.05555555555555555 0  0.5 0.05555555555555555 0  0.5555555555555556 0.05555555555555555 0  0.6111111111111112 0.05555555555555555 0  0.6666666666666666 0.05555555555555555 0  0.7222222222222222 0.05555555555555555 0  0.7777777777777778 0.05555555555555555 0  0.8333333333333334 0.05555555555555555 0  0.8888888888888888 0.05555555555555555 0  0.9444444444444444 0.05555555555555555 0  1 0.05555555555555555 0  0 0.1111111111111111 0  0.05555555555555555 0.1111111111111111 0  0.1111111111111111 0.1111111111111111 0  0.1666666666666667 0.1111111111111111 0  0.2222222222222222 0.1111111111111111 0  0.2777777777777778 0.1111111111111111 0  0.3333333333333333 0.1111111111111111 0  0.3888888888888889 0.1111111111111111 0  0.4444444444444444 0.1111111111111111 0  0.5 0.1111111111111111 0  0.5555555555555556 0.1111111111111111 0  0.6111111111111112 0.1111111111111111 0  0.6666666666666666 0.1111111111111111 0  0.7222222222222222 0.1111111111111111 0  0.7777777777777778 0.1111111111111111 0  0.8333333333333334 0.1111111111111111 0  0.8888888888888888 0.1111111111111111 0  0.9444444444444444 0.1111111111111111 0  1 0.1111111111111111 0  0 0.1666666666666667 0  0.05555555555555555 0.1666666666666667 0  0.1111111111111111 0.1666666666666667 0  0.1666666666666667 0.1666666666666667 0  0.2222222222222222 0.1666666666666667 0  0.2777777777777778 0.1666666666666667 0  0.3333333333333333 0.1666666666666667 0  0.3888888888888889 0.1666666666666667 0  0.4444444444444444 0.1666666666666667 0  0.5 0.1666666666666667 0  0.5555555555555556 0.1666666666666667 0  0.6111111111111112 0.1666666666666667 0  0.6666666666666666 0.1666666666666667 0  0.7222222222222222 0.1666666666666667 0  0.7777777777777778 0.1666666666666667 0  0.8333333333333334 0.1666666666666667 0  0.8888888888888888 0.1666666666666667 0  0.9444444444444444 0.1666666666666667 0  1 0.1666666666666667 0  0 0.2222222222222222 0  0.05555555555555555 0.2222222222222222 0  0.1111111111111111 0.2222222222222222 0  0.1666666666666667 0.2222222222222222 0  0.2222222222222222 0.2222222222222222 0  0.2777777777777778 0.2222222222222222 0  0.3333333333333333 0.2222222222222222 0  0.3888888888888889 0.2222222222222222 0  0.4444444444444444 0.2222222222222222 0  0.5 0.2222222222222222 0  0.5555555555555556 0.2222222222222222 0  0.6111111111111112 0.2222222222222222 0  0.6666666666666666 0.2222222222222222 0  0.7222222222222222 0.2222222222222222 0  0.7777777777777778 0.2222222222222222 0  0.8333333333333334 0.2222222222222222 0  0.8888888888888888 0.2222222222222222 0  0.9444444444444444 0.2222222222222222 0  1 0.2222222222222222 0  0 0.2777777777777778 0  0.05555555555555555 0.2777777777777778 0  0.1111111111111111 0.2777777777777778 0  0.1666666666666667 0.2777777777777778 0  0.2222222222222222 0.2777777777777778 0  0.2777777777777778 0.2777777777777778 0  0.3333333333333333 0.2777777777777778 0  0.3888888888888889 0.2777777777777778 0  0.4444444444444444 0.2777777777777778 0  0.5 0.2777777777777778 0  0.5555555555555556 0.2777777777777778 0  0.6111111111111112 0.2777777777777778 0  0.6666666666666666 0.2777777777777778 0  0.7222222222222222 0.2777777777777778 0  0.7777777777777778 0.2777777777777778 0  0.8333333333333334 0.2777777777777778 0  0.8888888888888888 0.2777777777777778 0  0.9444444444444444 0.2777777777777778 0  1 0.2777777777777778 0  0 0.3333333333333333 0  0.05555555555555555 0.3333333333333333 0  0.1111111111111111 0.3333333333333333 0  0.1666666666666667 0.3333333333333333 0  0.2222222222222222 0.3333333333333333 0  0.2777777777777778 0.3333333333333333 0  0.3333333333333333 0.3333333333333333 0  0.3888888888888889 0.3333333333333333 0  0.4444444444444444 0.3333333333333333 0  0.5 0.3333333333333333 0  0.5555555555555556 0.3333333333333333 0  0.6111111111111112 0.3333333333333333 0  0.6666666666666666 0.3333333333333333 0  0.7222222222222222 0.3333333333333333 0  0.7777777777777778 0.3333333333333333 0  0.8333333333333334 0.3333333333333333 0  0.8888888888888888 0.3333333333333333 0  0.9444444444444444 0.3333333333333333 0  1 0.3333333333333333 0  0 0.3888888888888889 0  0.05555555555555555 0.3888888888888889 0  0.1111111111111111 0.3888888888888889 0  0.1666666666666667 0.3888888888888889 0  0.2222222222222222 0.3888888888888889 0  0.2777777777777778 0.3888888888888889 0  0.3333333333333333 0.3888888888888889 0  0.3888888888888889 0.3888888888888889 0  0.4444444444444444 0.3888888888888889 0  0.5 0.3888888888888889 0  0.5555555555555556 0.3888888888888889 0  0.6111111111111112 0.3888888888888889 0  0.6666666666666666 0.3888888888888889 0  0.7222222222222222 0.3888888888888889 0  0.7777777777777778 0.3888888888888889 0  0.8333333333333334 0.3888888888888889 0  0.8888888888888888 0.3888888888888889 0  0.9444444444444444 0.3888888888888889 0  1 0.3888888888888889 0  0 0.4444444444444444 0  0.05555555555555555 0.4444444444444444 0  0.1111111111111111 0.4444444444444444 0  0.1666666666666667 0.4444444444444444 0  0.2222222222222222 0.4444444444444444 0  0.2777777777777778 0.4444444444444444 0  0.3333333333333333 0.4444444444444444 0  0.3888888888888889 0.4444444444444444 0  0.4444444444444444 0.4444444444444444 0  0.5 0.4444444444444444 0  0.5555555555555556 0.4444444444444444 0  0.6111111111111112 0.4444444444444444 0  0.6666666666666666 0.4444444444444444 0  0.7222222222222222 0.4444444444444444 0  0.7777777777777778 0.4444444444444444 0  0.8333333333333334 0.4444444444444444 0  0.8888888888888888 0.4444444444444444 0  0.9444444444444444 0.4444444444444444 0  1 0.4444444444444444 0  0 0.5 0  0.05555555555555555 0.5 0  0.1111111111111111 0.5 0  0.1666666666666667 0.5 0  0.2222222222222222 0.5 0  0.2777777777777778 0.5 0  0.3333333333333333 0.5 0  0.3888888888888889 0.5 0  0.4444444444444444 0.5 0  0.5 0.5 0  0.5555555555555556 0.5 0  0.6111111111111112 0.5 0  0.6666666666666666 0.5 0  0.7222222222222222 0.5 0  0.7777777777777778 0.5 0  0.8333333333333334 0.5 0  0.8888888888888888 0.5 0  0.9444444444444444 0.5 0  1 0.5 0  0 0.5555555555555556 0  0.05555555555555555 0.5555555555555556 0  0.1111111111111111 0.5555555555555556 0  0.1666666666666667 0.5555555555555556 0  0.2222222222222222 0.5555555555555556 0  0.2777777777777778 0.5555555555555556 0  0.3333333333333333 0.5555555555555556 0  0.3888888888888889 0.5555555555555556 0  0.4444444444444444 0.5555555555555556 0  0.5 0.5555555555555556 0  0.5555555555555556 0.5555555555555556 0  0.6111111111111112 0.5555555555555556 0  0.6666666666666666 0.5555555555555556 0  0.7222222222222222 0.5555555555555556 0  0.7777777777777778 0.5555555555555556 0  0.8333333333333334 0.5555555555555556 0  0.8888888888888888 0.5555555555555556 0  0.9444444444444444 0.5555555555555556 0  1 0.5555555555555556 0  0 0.6111111111111112 0  0.05555555555555555 0.6111111111111112 0  0.1111111111111111 0.6111111111111112 0  0.1666666666666667 0.6111111111111112 0  0.2222222222222222 0.6111111111111112 0  0.2777777777777778 0.6111111111111112 0  0.3333333333333333 0.6111111111111112 0  0.3888888888888889 0.6111111111111112 0  0.4444444444444444 0.6111111111111112 0  0.5 0.6111111111111112 0  0.5555555555555556 0.6111111111111112 0  0.6111111111111112 0.6111111111111112 0  0.6666666666666666 0.6111111111111112 0  0.7222222222222222 0.6111111111111112 0  0.7777777777777778 0.6111111111111112 0  0.8333333333333334 0.6111111111111112 0  0.8888888888888888 0.6111111111111112 0  0.9444444444444444 0.6111111111111112 0  1 0.6111111111111112 0  0 0.6666666666666666 0  0.05555555555555555 0.6666666666666666 0  0.1111111111111111 0.6666666666666666 0  0.1666666666666667 0.6666666666666666 0  0.2222222222222222 0.6666666666666666 0  0.2777777777777778 0.6666666666666666 0  0.3333333333333333 0.6666666666666666 0  0.3888888888888889 0.6666666666666666 0  0.4444444444444444 0.6666666666666666 0  0.5 0.6666666666666666 0  0.5555555555555556 0.6666666666666666 0  0.6111111111111112 0.6666666666666666 0  0.6666666666666666 0.6666666666666666 0  0.7222222222222222 0.6666666666666666 0  0.7777777777777778 0.6666666666666666 0  0.8333333333333334 0.6666666666666666 0  0.8888888888888888 0.6666666666666666 0  0.9444444444444444 0.6666666666666666 0  1 0.6666666666666666 0  0 0.7222222222222222 0  0.05555555555555555 0.7222222222222222 0  0.1111111111111111 0.7222222222222222 0  0.1666666666666667 0.7222222222222222 0  0.2222222222222222 0.7222222222222222 0  0.2777777777777778 0.7222222222222222 0  0.3333333333333333 0.7222222222222222 0  0.3888888888888889 0.7222222222222222 0  0.4444444444444444 0.7222222222222222 0  0.5 0.7222222222222222 0  0.5555555555555556 0.7222222222222222 0  0.6111111111111112 0.7222222222222222 0  0.6666666666666666 0.7222222222222222 0  0.7222222222222222 0.7222222222222222 0  0.7777777777777778 0.7222222222222222 0  0.8333333333333334 0.7222222222222222 0  0.8888888888888888 0.7222222222222222 0  0.9444444444444444 0.7222222222222222 0  1 0.7222222222222222 0  0 0.7777777777777778 0  0.05555555555555555 0.7777777777777778 0  0.1111111111111111 0.7777777777777778 0  0.1666666666666667 0.777777777
[...]
<PointData  Scalars="f_54"> 
<DataArray  type="Float64"  Name="f_54"  format="ascii">0.0000000000000000e+00  -9.8260526702828814e-12  3.8885712567486814e-11  -1.4950457284561521e-10  5.7451210990437617e-10  -2.2076834673828654e-09  8.4819866822951289e-09  -3.2565860335228380e-08  1.2483656753836987e-07  -4.7736843228901200e-07  1.8211938668755468e-06  -6.9484361077666199e-06  2.6650956672237747e-05  -1.0340261703297660e-04  4.0645142762761290e-04  -1.6004813535998551e-03  6.1226247784864959e-03  -2.1506778758356410e-02  6.2126354686634758e-02  0.0000000000000000e+00  -3.1812710690086969e-12  1.4181866900623969e-11  -5.5023832313690576e-11  2.1163883842281722e-10  -8.1345022095388500e-10  3.1267576080013124e-09  -1.2025121892209050e-08  4.6282254361994259e-08  -1.7814363524056044e-07  6.8425606948229023e-07  -2.6142250092321483e-06  9.9092926625298979e-06  -3.7335728263668331e-05  1.4136706025350774e-04  -5.4972496420792425e-04  2.2456291308040784e-03  -9.6391675435139670e-03  4.1849160952172858e-02  0.0000000000000000e+00  -4.9693059296320830e-12  2.0036359375376873e-11  -7.7530723065766933e-11  2.9852278611159743e-10  -1.1481656481481395e-09  4.4131078417273055e-09  -1.6953564331561532e-08  6.5105752849272371e-08  -2.5002475960822589e-07  9.6066220507090701e-07  -3.6935899538616480e-06  1.4200291941484010e-05  -5.4479323384414073e-05  2.0791589719030778e-04  -7.8699408055377747e-04  2.9531958901427547e-03  -1.1039240131701995e-02  4.1545886122364886e-02  0.0000000000000000e+00  -4.4169228956237543e-12  1.8296299019314351e-11  -7.0715698369335537e-11  2.7248168753485832e-10  -1.0495685110976464e-09  4.0402992911679589e-09  -1.5543254739926611e-08  5.9764749426119229e-08  -2.2965716458269161e-07  8.8190083814075141e-07  -3.3852098763378311e-06  1.2996258197459666e-05  -4.9937601873518052e-05  1.9215211843918290e-04  -7.4028692553487578e-04  2.8521753426495188e-03  -1.0968140357121466e-02  4.2033067202410748e-02  0.0000000000000000e+00  -4.4660113741903484e-12  1.8420827162146602e-11  -7.1364091912811296e-11  2.7486654429191279e-10  -1.0586038048017005e-09  4.0782864276786665e-09  -1.5705762667873225e-08  6.0445175103954073e-08  -2.3253488504855523e-07  8.9424960726925759e-07  -3.4369285008055513e-06  1.3199627592229101e-05  -5.0652296089661160e-05  1.9422453786804169e-04  -7.4436642662109684e-04  2.8524128369839842e-03  -1.0932303434251989e-02  4.1905734659133956e-02  0.0000000000000000e+00  -4.3415832385506046e-12  1.7969519516527641e-11  -6.9982255762878348e-11  2.7059882498584773e-10  -1.0427969677646702e-09  4.0155596756042894e-09  -1.5471344264288958e-08  5.9610210538729375e-08  -2.2951548752848222e-07  8.8320743701436033e-07  -3.3979057496742866e-06  1.3068265160200396e-05  -5.0241717549918974e-05  1.9308009712525740e-04  -7.4165196000810694e-04  2.8472532979589306e-03  -1.0924839856957995e-02  4.1898390556153735e-02  0.0000000000000000e+00  -4.3674332241932565e-12  1.7743508592994479e-11  -6.8638226926761518e-11  2.6632815239010729e-10  -1.0324499113148618e-09  3.9862108346320359e-09  -1.5352849388438321e-08  5.9140977324620291e-08  -2.2795070764878515e-07  8.7817725088697221e-07  -3.3804659364280076e-06  1.3008248227096021e-05  -5.0037305441778785e-05  1.9238924777392091e-04  -7.3943089022177836e-04  2.8408152090311132e-03  -1.0909669504975732e-02  4.1878926514541504e-02  0.0000000000000000e+00  -4.4723214297656986e-12  1.8127032164906109e-11  -6.8692461187342014e-11  2.6201836402903554e-10  -1.0122539447905926e-09  3.9308549753799566e-09  -1.5222664917928204e-08  5.8697526536858212e-08  -2.2604930948406323e-07  8.7132250082505754e-07  -3.3588862350869952e-06  1.2936547992613499e-05  -4.9802989440515436e-05  1.9166376930583289e-04  -7.3727275113604092e-04  2.8348628897066049e-03  -1.0895634575310707e-02  4.1859175787668783e-02  0.0000000000000000e+00  -4.1307704166949330e-12  1.8119786312870330e-11  -7.0742647815477677e-11  2.6745614010583532e-10  -1.0093274428078737e-09  3.8621732070220660e-09  -1.4967506212351636e-08  5.8139424003203239e-08  -2.2476543473674725e-07  8.6576713035883547e-07  -3.3360196530091695e-06  1.2865995302134648e-05  -4.9577971195003016e-05  1.9093494754066786e-04  -7.3509328182244432e-04  2.8288420610002424e-03  -1.0881562677587305e-02  4.1839859867170003e-02  0.0000000000000000e+00  -2.8349185171674980e-12  1.4907555953290253e-11  -6.6318018009515876e-11  2.7058857540868027e-10  -1.0438775371670596e-09  3.9293819969656345e-09  -1.4849964481609284e-08  5.7084304082998907e-08  -2.2185375630954418e-07  8.6091162945151200e-07  -3.3209454675100486e-06  1.2790289855060189e-05  -4.9339344955457275e-05  1.9023245568162511e-04  -7.3291935181801413e-04  2.8228396114702071e-03  -1.0867498088319305e-02  4.1820480954977646e-02  0.0000000000000000e+00  -1.0858506984783205e-12  8.0592882038080054e-12  -4.5952190144352521e-11  2.2625714972675417e-10  -9.9604260170995004e-10  4.0251326433142645e-09  -1.5394282208048420e-08  5.7750948627906631e-08  -2.1899825537010365e-07  8.4661731596050486e-07  -3.2956888922730389e-06  1.2754118727944697e-05  -4.9114475944553467e-05  1.8944471466047599e-04  -7.3081269487838070e-04  2.8168543323075896e-03  -1.0853451340941700e-02  4.1801137440939655e-02  0.0000000000000000e+00  2.8428649658354586e-14  1.6101896071021536e-12  -1.7273013055191704e-11  1.2218346878053494e-10  -6.9819616335389487e-10  3.4309918442930503e-09  -1.4984650444578725e-08  5.9871672382142669e-08  -2.2679977201165842e-07  8.4927517164045389e-07  -3.2407977002240581e-06  1.2604460632298658e-05  -4.9006119281146231e-05  1.8888738927610340e-04  -7.2835800970521246e-04  2.8109704508573205e-03  -1.0839483814856018e-02  4.1781815329960302e-02  0.0000000000000000e+00  2.0131821818666542e-13  -8.7292940449506561e-13  8.6708712139581509e-13  2.2371232571752328e-11  -2.5582607498775419e-10  1.8507920328378320e-09  -1.0656254873797017e-08  5.2235511531743936e-08  -2.2580295594603977e-07  8.8953826820370012e-07  -3.3352916180826687e-06  1.2508806471281213e-05  -4.8216278613443860e-05  1.8824900430284620e-04  -7.2736092209386397e-04  2.8041599610226444e-03  -1.0825401956599085e-02  4.1762649548303381e-02  0.0000000000000000e+00  2.5603922611191794e-14  -4.5077339414538652e-13  3.1978262983750814e-12  -1.4075641897196959e-11  2.0844756097383319e-11  3.0168813468428143e-10  -3.7831607832703216e-09  2.8157237155585627e-08  -1.6360250469719871e-07  7.9891582062584754e-07  -3.4055890288169642e-06  1.3174484973522587e-05  -4.8921760834042647e-05  1.8510721795120881e-04  -7.2281033881205334e-04  2.8032788552798168e-03  -1.0810421976036780e-02  4.1742531233284433e-02  0.0000000000000000e+00  -3.2978099055944706e-14  1.1369482200635796e-13  2.0595218977036397e-13  -5.8840738115609640e-12  4.6818333356679369e-11  -2.2608567032654093e-10  4.5193777351280356e-10  3.9004311096856558e-09  -5.5788130959401984e-08  4.3075475266752459e-07  -2.5312602904895067e-06  1.2284608634283541e-05  -5.1305495447242319e-05  1.9373886954169090e-04  -7.1673806959299106e-04  2.7772426458027508e-03  -1.0809641889554803e-02  4.1726455281847194e-02  0.0000000000000000e+00  -2.7449129896115662e-15  7.2024078821773485e-14  -5.2813062797645469e-13  2.1572094475228206e-12  -6.4921622142748708e-13  -7.1008934598742370e-11  6.7131068435340944e-10  -3.6234135768992773e-09  9.3142800457653488e-09  4.6398649068808935e-08  -8.1793931926022657e-07  6.6416329607380115e-06  -3.9606037249106509e-05  1.9005703892539938e-04  -7.6727463897494476e-04  2.8080621799439691e-03  -1.0705565714544158e-02  4.1712077356112702e-02  0.0000000000000000e+00  5.6856832762130550e-15  -2.5965110152083896e-14  1.4005250735274152e-14  7.9237702043056867e-13  -7.4862804433167891e-12  3.8171906868429910e-11  -7.2024928546835508e-11  -7.3290554788378541e-10  9.2639421702118225e-09  -5.7683118640424061e-08  1.8731114793067725e-07  4.4558356918988094e-07  -1.1849634108734071e-05  1.0376825228030567e-04  -6.3163212770155151e-04  2.9531983707397351e-03  -1.1083402971107117e-02  4.1505760122072431e-02  0.0000000000000000e+00  -6.1779817745036510e-16  -6.9647934730563172e-15  8.1642256139781070e-14  -4.6464078609991298e-13  1.1777289991755327e-12  6.1750370481887186e-12  -9.6433142389822759e-11  6.2968908219978681e-10  -2.0878832888054788e-09  -4.4697897263513493e-09  1.1789709696919514e-07  -9.0210229032234491e-07  3.7411007644098579e-06  9.7291348041694436e-07  -1.6695450522804807e-04  1.6718916315662741e-03  -1.0514671575386278e-02  4.3282122866998451e-02  0.0000000000000000e+00  -6.9096712580208812e-16  5.6952673833770572e-15  -2.0842344071000385e-14  -1.9929283513681912e-14  9.0819935479198193e-13  -7.2258948333328398e-12  3.0912741095588654e-11  -1.2295914192021802e-11  -1.0095161317701257e-09  9.3875332756229290e-09  -4.6270585250964740e-08  6.2752477113238910e-08  1.1992693438662949e-06  -1.3400056955101844e-05  7.5515724865858443e-05  -1.4204385775222624e-04  -2.1540358551555001e-03  3.1581244426402748e-02  </DataArray> 
</PointData> 
</Piece>
</UnstructuredGrid>
</VTKFile>